[Molden Format]
made by pyscf v[2.2.1]
[Atoms] (AU)
He   1   2     0.00000000000000     0.00000000000000     0.00000000000000
He   2   2    11.03134083955726     0.00000000000000     0.00000000000000
He   3   2     0.00000000000000    11.03134083955726     0.00000000000000
He   4   2    11.03134083955726    11.03134083955726     0.00000000000000
He   5   2     5.51567040677807     5.51567040677807     7.80033590793468
He   6   2     5.51567040677807     5.51567040677807    -7.80033590793468
He   7   2     5.51567040677807     5.51567040677807     0.00000000000000
[GTO]
1 0
 s    3 1.00
                 38.36   0.040176075383249
                  5.77    0.26136807476949
                  1.24    0.79307123949544
 s    1 1.00
                0.2976                   1
 s    1 1.00
               0.07255                   1
 p    1 1.00
                 1.275                   1
 p    1 1.00
                0.2473                   1

2 0
 s    3 1.00
                 38.36   0.040176075383249
                  5.77    0.26136807476949
                  1.24    0.79307123949544
 s    1 1.00
                0.2976                   1
 s    1 1.00
               0.07255                   1
 p    1 1.00
                 1.275                   1
 p    1 1.00
                0.2473                   1

3 0
 s    3 1.00
                 38.36   0.040176075383249
                  5.77    0.26136807476949
                  1.24    0.79307123949544
 s    1 1.00
                0.2976                   1
 s    1 1.00
               0.07255                   1
 p    1 1.00
                 1.275                   1
 p    1 1.00
                0.2473                   1

4 0
 s    3 1.00
                 38.36   0.040176075383249
                  5.77    0.26136807476949
                  1.24    0.79307123949544
 s    1 1.00
                0.2976                   1
 s    1 1.00
               0.07255                   1
 p    1 1.00
                 1.275                   1
 p    1 1.00
                0.2473                   1

5 0
 s    3 1.00
                 38.36   0.040176075383249
                  5.77    0.26136807476949
                  1.24    0.79307123949544
 s    1 1.00
                0.2976                   1
 s    1 1.00
               0.07255                   1
 p    1 1.00
                 1.275                   1
 p    1 1.00
                0.2473                   1

6 0
 s    3 1.00
                 38.36   0.040176075383249
                  5.77    0.26136807476949
                  1.24    0.79307123949544
 s    1 1.00
                0.2976                   1
 s    1 1.00
               0.07255                   1
 p    1 1.00
                 1.275                   1
 p    1 1.00
                0.2473                   1

7 0
 s    3 1.00
                 38.36   0.040176075383249
                  5.77    0.26136807476949
                  1.24    0.79307123949544
 s    1 1.00
                0.2976                   1
 s    1 1.00
               0.07255                   1
 p    1 1.00
                 1.275                   1
 p    1 1.00
                0.2473                   1

[5d]
[7f]
[9g]

[MO]
 Sym= A
 Ene=               0
 Spin= Alpha
 Occup=    1.00000
   1       1.2491612321234
   2     -0.54180679164881
   3      0.12134558411722
   4    -0.00020529445035514
   5    -0.00020529445035519
   6    -1.801074562287e-16
   7    0.00054909074623347
   8    0.00054909074623358
   9    6.076914146243e-17
  10    -0.00011158890769925
  11    0.00022335279786282
  12    8.8695865265046e-05
  13    4.0615709830599e-05
  14    -0.00013229167417536
  15    -1.0537217348389e-17
  16    -0.00017362895656111
  17    0.00041539286038394
  18    7.9182580433147e-17
  19    -0.00011158890769813
  20    0.00022335279786224
  21    8.8695865267666e-05
  22    -0.00013229167417561
  23    4.0615709830784e-05
  24    1.3152678046584e-16
  25    0.00041539286038482
  26    -0.00017362895656182
  27    -3.0528611863632e-16
  28    0.00027039358413104
  29    -0.0010861718929386
  30    0.0017247059962749
  31    0.00012225488464648
  32    0.0001222548846465
  33    1.0220837875266e-16
  34    -0.00039229803905973
  35    -0.00039229803905966
  36    1.4774301275857e-16
  37    -0.00011158891258842
  38    0.00022335281453837
  39    8.8695845648357e-05
  40    -4.5837983308743e-05
  41    -4.583798330892e-05
  42    0.00012226398319258
  43    0.00012088195513172
  44    0.00012088195513179
  45    -0.00041650131999094
  46    -0.00011158891258852
  47    0.00022335281453849
  48    8.8695845648313e-05
  49    -4.583798330874e-05
  50    -4.5837983308849e-05
  51    -0.00012226398319263
  52    0.00012088195513221
  53    0.00012088195513233
  54    0.00041650131999098
  55    -0.0023399422221841
  56    0.0095709044691152
  57    -0.014612164556575
  58    -0.0011695861534603
  59    -0.0011695861534598
  60    -7.1636680865265e-18
  61    0.0036203095847178
  62    0.0036203095847172
  63    1.0016569847859e-17
 Sym= A
 Ene=               1
 Spin= Alpha
 Occup=    1.00000
   1     -0.54173812987716
   2       1.6655261277662
   3     -0.65437172079304
   4    0.00083297998179886
   5     0.000832979981799
   6    5.6776376698047e-17
   7    -0.0023275697444287
   8    -0.0023275697444287
   9    -2.4449133361356e-16
  10    0.0005588087500771
  11    -0.001317039027705
  12    0.00013719209228802
  13    -0.00015970986207074
  14    0.00060925484923607
  15    -1.5552186371906e-17
  16    0.00064208551735056
  17    -0.001803293423984
  18    -5.4284208184433e-17
  19    0.00055880875007702
  20    -0.0013170390277021
  21    0.00013719209228718
  22    0.00060925484923639
  23    -0.00015970986207081
  24    -1.7241503719463e-16
  25    -0.0018032934239844
  26    0.0006420855173506
  27    4.4772816646822e-16
  28    -0.0010529018674731
  29    0.0044120571178395
  30    -0.0072522484005863
  31    -0.0005585579733387
  32    -0.00055855797333883
  33    -1.7367617702616e-17
  34     0.001691774749278
  35    0.0016917747492779
  36    -3.702297625561e-17
  37    0.00055880876964126
  38    -0.0013170390986047
  39      0.00013719218089
  40    0.00022477249907487
  41    0.00022477249907504
  42    -0.00054374015886117
  43    -0.00058060396834163
  44    -0.00058060396834157
  45    0.0017291440258063
  46    0.00055880876964139
  47    -0.001317039098605
  48    0.00013719218089028
  49    0.00022477249907485
  50    0.00022477249907501
  51    0.00054374015886132
  52    -0.00058060396834128
  53    -0.00058060396834161
  54    -0.0017291440258065
  55    0.0065294237318873
  56    -0.035154069392646
  57     0.064964314879302
  58     0.005374027092284
  59    0.0053740270922842
  60    -7.8145777992464e-17
  61    -0.016942103530364
  62    -0.016942103530365
  63    1.1888905214107e-16
 Sym= A
 Ene=               2
 Spin= Alpha
 Occup=    1.00000
   1      0.12118737453915
   2     -0.65417300083798
   3       1.3611981143123
   4    -0.0012967568874916
   5    -0.0012967568874916
   6    2.1277481635294e-17
   7    0.0038106839440602
   8    0.0038106839440602
   9    -2.1393460564477e-17
  10    -0.0011074823618495
  11    0.0029031625008446
  12    -0.0011438436181701
  13    0.00025916805598067
  14    -0.0011064025817627
  15    1.4928215248907e-18
  16    -0.0010045827154789
  17    0.0032014753376557
  18    3.655657502594e-18
  19    -0.0011074823618475
  20    0.0029031625008398
  21    -0.0011438436181638
  22    -0.0011064025817628
  23    0.00025916805598031
  24    9.6974042459507e-17
  25    0.0032014753376557
  26    -0.0010045827154782
  27    -1.0226565354301e-16
  28    0.0017912375195592
  29    -0.0076045086164135
  30     0.012661840294505
  31    0.0010114469995791
  32    0.0010114469995791
  33    -9.3327620303557e-17
  34    -0.0029956575044899
  35    -0.0029956575044898
  36    1.9055959878433e-17
  37    -0.0011074823963119
  38    0.0029031626284514
  39    -0.0011438437828898
  40    -0.00042361727318281
  41    -0.00042361727318274
  42    0.00096560425217844
  43    0.0010984463391839
  44    0.0010984463391838
  45    -0.002974132158219
  46    -0.001107482396312
  47    0.0029031626284517
  48    -0.0011438437828901
  49    -0.00042361727318261
  50    -0.00042361727318264
  51    -0.00096560425217872
  52    0.0010984463391836
  53    0.0010984463391835
  54    0.0029741321582195
  55    -0.0096195466356886
  56     0.056627344677429
  57     -0.11603443978523
  58    -0.0098561446097234
  59    -0.0098561446097252
  60    1.9180640737941e-16
  61     0.031479098278882
  62     0.031479098278885
  63    -2.7919816993061e-16
 Sym= A
 Ene=               3
 Spin= Alpha
 Occup=    1.00000
   1    -0.00018483073107699
   2    0.00078745564269347
   3    -0.0012670576997154
   4       1.0980170234787
   5    0.00010493569578129
   6    4.4734743180174e-15
   7      -0.2727127590179
   8    -0.00030015316706648
   9    5.7643920408597e-15
  10    -9.6584223575787e-05
  11    0.00038824660125659
  12    -0.0006916452597241
  13    -0.00010003264116223
  14    0.00010122744123476
  15    -2.7897740223299e-16
  16    0.00028618112849584
  17    -0.0002904467663923
  18    -1.3639468361505e-16
  19    -0.00023474540316454
  20    0.00082448643312234
  21    -0.0012016316593984
  22    0.00010107023244034
  23    -0.00010145659114397
  24    1.0429597271977e-16
  25    -0.00029013459379505
  26    0.00029088866206709
  27    -3.5357321364188e-16
  28    -0.00022031211540798
  29    0.00077851077331971
  30    -0.0011466651628134
  31    -9.8100366555116e-05
  32    -9.8618686406249e-05
  33    -3.1319230670448e-15
  34    0.00028262765459016
  35    0.00028395529419505
  36    -1.0104106913741e-14
  37    -0.00016566481251069
  38    0.00060636651489559
  39    -0.00094663845811576
  40    4.4750150274375e-07
  41    -4.3280286451129e-08
  42    -0.00014276023019644
  43    -1.5086973137067e-06
  44    -2.4708902381437e-07
  45    0.00040929149102336
  46    -0.00016566481251022
  47    0.00060636651489417
  48    -0.00094663845811424
  49    4.4750150218091e-07
  50    -4.3280286084725e-08
  51    0.00014276023019649
  52    -1.5086973097098e-06
  53    -2.4708902057346e-07
  54    -0.00040929149102346
  55     0.002096201351242
  56    -0.007072739004774
  57    0.0087874892085615
  58    0.00035065466000753
  59    0.00039364122263191
  60    1.9944507202867e-17
  61    -0.00088168077174243
  62    -0.00099027082421507
  63    1.5964489277452e-17
 Sym= A
 Ene=               4
 Spin= Alpha
 Occup=    1.00000
   1    -0.00018483073107703
   2    0.00078745564269357
   3    -0.0012670576997154
   4    0.00010493569578128
   5       1.0980170234787
   6    4.5395718742543e-15
   7    -0.00030015316706653
   8     -0.27271275901789
   9    5.5874781034368e-15
  10    -0.00023474540316437
  11    0.00082448643312294
  12    -0.0012016316593995
  13    -0.00010145659114509
  14    0.00010107023244257
  15    4.795402351865e-17
  16    0.00029088866206891
  17    -0.00029013459379806
  18    -3.6542445407267e-16
  19    -9.6584223575549e-05
  20    0.00038824660125457
  21    -0.00069164525972156
  22    0.00010122744123387
  23    -0.00010003264115965
  24    -1.1647073482004e-16
  25    -0.00029044676639015
  26    0.00028618112849197
  27    -2.2353982187363e-16
  28    -0.00022031211540822
  29    0.00077851077332013
  30    -0.0011466651628136
  31    -9.8618686406094e-05
  32    -9.8100366554794e-05
  33    -3.3226688373039e-15
  34    0.00028395529419443
  35    0.00028262765458998
  36    -9.7905071315175e-15
  37    -0.00016566481251076
  38    0.00060636651489564
  39    -0.00094663845811575
  40    -4.3280285573696e-08
  41    4.4750150307375e-07
  42    -0.00014276023019606
  43    -2.4708902445275e-07
  44    -1.5086973140484e-06
  45    0.00040929149102336
  46    -0.00016566481251024
  47    0.00060636651489408
  48    -0.00094663845811406
  49    -4.3280285595482e-08
  50    4.4750150333543e-07
  51    0.00014276023019611
  52    -2.4708902074157e-07
  53    -1.5086973111366e-06
  54    -0.00040929149102342
  55    0.0020962013512417
  56    -0.0070727390047728
  57    0.0087874892085602
  58    0.00039364122262851
  59    0.00035065466001116
  60    1.625427890105e-17
  61    -0.00099027082421308
  62    -0.00088168077174471
  63    2.2232308284243e-17
 Sym= A
 Ene=               5
 Spin= Alpha
 Occup=    1.00000
   1    -1.8642958387856e-16
   2    1.0713438492225e-16
   3    -8.7826064481302e-17
   4    4.4840285427987e-15
   5    4.5501555864896e-15
   6        1.097912087783
   7    5.7895080716326e-15
   8    5.6482476510892e-15
   9     -0.27241260585087
  10    -6.1733131931104e-17
  11    -1.3668457861553e-16
  12    3.4928785316277e-17
  13    -3.3352789064514e-15
  14    3.4400965085291e-15
  15    4.9078181407013e-07
  16    -1.0746408296947e-14
  17    1.0534425688339e-14
  18    -1.261608334566e-06
  19    -1.5856387093966e-17
  20    -2.177700046089e-16
  21    -2.0263878656419e-17
  22    3.1839574205816e-15
  23    -3.2753377309563e-15
  24    4.9078178584524e-07
  25    1.0203943471389e-14
  26    -9.9961891590261e-15
  27    -1.2616083029091e-06
  28    -1.8867787855551e-16
  29    1.7935067009047e-16
  30    -2.1723589669283e-16
  31    -2.8427180341479e-15
  32    -3.261584068567e-15
  33    5.1831986741733e-07
  34    -1.0416089272893e-14
  35    -1.0282072632106e-14
  36    -1.3276396277523e-06
  37    9.7694708969686e-05
  38    -0.00030846814958148
  39    0.00036061484880599
  40    5.5902408591209e-07
  41    5.5902406576106e-07
  42    6.3337061884246e-07
  43    -1.7747342175597e-06
  44    -1.774734195014e-06
  45    -2.1976805906829e-06
  46    -9.7694708970001e-05
  47    0.00030846814958183
  48    -0.00036061484880664
  49    -5.5902408598441e-07
  50    -5.5902406566857e-07
  51    6.3337062832939e-07
  52    1.7747342176405e-06
  53    1.774734194973e-06
  54    -2.1976805617144e-06
  55    2.1277939693019e-15
  56    -7.7124813540854e-15
  57    1.6982570045449e-15
  58    -4.4997860665719e-16
  59    -3.5531872566254e-16
  60    -4.2986562307383e-05
  61    -7.3936228685241e-16
  62    -9.5286749117051e-17
  63    0.00010859005157696
 Sym= A
 Ene=               6
 Spin= Alpha
 Occup=    1.00000
   1    0.00048322159944115
   2    -0.0021826151614675
   3    0.0037260219643138
   4     -0.27271590682863
   5    -0.00030319210936206
   6    5.8216159617387e-15
   7       1.0988257316541
   8    0.00091045246904488
   9    4.4563282640978e-15
  10    0.00032092240827143
  11    -0.0013536865907796
  12    0.0024022868856294
  13    0.00029996830080078
  14    -0.00029736896955808
  15    -8.4565615367652e-17
  16    -0.00089026833753575
  17    0.00089136749050777
  18    -1.2969638986915e-16
  19    0.00073309543900443
  20    -0.0027452796924899
  21    0.0040950807962002
  22    -0.00029682002561199
  23    0.00029881404771331
  24    -9.7195561488274e-18
  25    0.00089054703689118
  26    -0.00089475163769606
  27    -1.3432609496912e-16
  28    0.00069138411334772
  29    -0.0026071934874693
  30    0.0039270380807348
  31    0.0002910833474805
  32    0.00029244268211824
  33    -7.9268535660283e-16
  34    -0.00087418311790815
  35    -0.00087787365719653
  36    -5.4530722814759e-15
  37    0.00052700892097089
  38    -0.0020494831341116
  39    0.0032486838359551
  40    5.0898782241966e-07
  41    1.7876873644887e-06
  42    0.00042177906501223
  43    9.6830006195595e-07
  44    -2.5210194662472e-06
  45    -0.0012611017923872
  46    0.00052700892096988
  47    -0.0020494831341086
  48    0.0032486838359518
  49    5.0898782323797e-07
  50    1.7876873653763e-06
  51    -0.00042177906501222
  52    9.6830006262667e-07
  53    -2.5210194656456e-06
  54    0.0012611017923872
  55    -0.0059393303193654
  56     0.022182275799884
  57    -0.029540489206451
  58    -0.00090538541269794
  59    -0.00098987798300727
  60    1.457624732463e-17
  61    0.0024598423264042
  62    0.0027124798957699
  63    -5.4615808690079e-17
 Sym= A
 Ene=               7
 Spin= Alpha
 Occup=    0.00000
   1    0.00048322159944125
   2    -0.0021826151614675
   3    0.0037260219643137
   4    -0.00030319210936196
   5     -0.27271590682863
   6    5.6803614860674e-15
   7    0.00091045246904484
   8       1.0988257316541
   9    4.6265428962604e-15
  10    0.00073309543900512
  11    -0.0027452796924924
  12    0.0040950807962028
  13    0.00029881404771422
  14    -0.00029682002561406
  15    -4.6662065936403e-17
  16    -0.00089475163769677
  17    0.00089054703689326
  18    -1.854065885524e-16
  19    0.00032092240827038
  20    -0.0013536865907759
  21    0.0024022868856251
  22    -0.00029736896955697
  23    0.00029996830079847
  24    -9.8126592171937e-17
  25    0.00089136749050698
  26    -0.00089026833753311
  27    -3.0404737242894e-18
  28    0.00069138411334767
  29    -0.002607193487469
  30    0.0039270380807345
  31    0.00029244268211814
  32    0.00029108334748044
  33    -6.0602193702329e-16
  34    -0.00087787365719642
  35    -0.00087418311790817
  36    -5.7022011510943e-15
  37    0.00052700892097093
  38    -0.0020494831341117
  39    0.0032486838359551
  40    1.7876873640422e-06
  41    5.0898782186602e-07
  42    0.0004217790650121
  43    -2.5210194658944e-06
  44    9.6830006285511e-07
  45    -0.0012611017923869
  46    0.00052700892096982
  47    -0.0020494831341083
  48    0.0032486838359514
  49    1.7876873646454e-06
  50    5.089878224692e-07
  51    -0.00042177906501209
  52    -2.5210194648783e-06
  53    9.6830006364087e-07
  54    0.0012611017923869
  55    -0.0059393303193649
  56     0.022182275799882
  57    -0.029540489206449
  58    -0.00098987798300501
  59    -0.00090538541270038
  60    1.6551262667829e-17
  61    0.0027124798957664
  62    0.0024598423264081
  63    -6.3545821068809e-17
 Sym= A
 Ene=               8
 Spin= Alpha
 Occup=    0.00000
   1    4.7126266558154e-17
   2    -1.7449662628429e-16
   3    -1.5062083919731e-16
   4    5.7753186301387e-15
   5    5.5980930985631e-15
   6     -0.27241271471931
   7    4.4220494065054e-15
   8    4.5929024834687e-15
   9       1.0979152791852
  10    1.5256915752905e-16
  11    -2.0279973189089e-16
  12    -2.0389566137805e-16
  13    -8.8006500410974e-16
  14    6.949398443812e-16
  15    -1.2786995790595e-06
  16    -5.6029917855938e-15
  17    5.7848522152605e-15
  18    3.4893196169555e-06
  19    -1.3481669241196e-16
  20    4.4477398385923e-16
  21    -7.1986046480166e-16
  22    6.4941906150828e-16
  23    -5.6893991278691e-16
  24    -1.2786995564007e-06
  25    5.615010841568e-15
  26    -5.7714484974869e-15
  27    3.4893195909115e-06
  28    1.0406379041736e-17
  29    1.5011671284859e-16
  30    -3.805804890698e-16
  31    -1.0520002533122e-15
  32    -7.5234284151191e-16
  33    -1.3593346583684e-06
  34    -5.305156503035e-15
  35    -5.6142480335203e-15
  36    3.690539327056e-06
  37    -0.00029145035116006
  38    0.00098400493930613
  39    -0.0011969860779537
  40    2.1400907667251e-07
  41    2.1400909280899e-07
  42    8.5159850517505e-07
  43    1.875160232934e-06
  44    1.875160214223e-06
  45    1.8314233905318e-06
  46    0.00029145035116024
  47    -0.00098400493930639
  48    0.0011969860779535
  49    -2.1400907653648e-07
  50    -2.1400909292304e-07
  51    8.5159850706301e-07
  52    -1.8751602333074e-06
  53    -1.8751602142861e-06
  54    1.831423406676e-06
  55    1.6853130062831e-15
  56    -4.7829616208898e-15
  57    2.3419416012874e-15
  58    1.3582562189314e-16
  59    2.6845978907544e-16
  60    8.4492569412275e-05
  61    -1.1144968681536e-15
  62    -8.7582644604007e-16
  63    -0.00025263756666707
 Sym= A
 Ene=               9
 Spin= Alpha
 Occup=    0.00000
   1    -0.0001115889077589
   2    0.00022335279721623
   3    8.8695869685294e-05
   4    -4.0615710313937e-05
   5    -0.00013229167522169
   6    -1.7507020537538e-16
   7    0.00017362895838654
   8    0.00041539286401322
   9    -1.1329196548064e-16
  10       1.2491612321158
  11     -0.54180679161855
  12      0.12134558406949
  13    0.00020529444654644
  14    -0.0002052944456166
  15    2.0814835696481e-16
  16    -0.00054909073561131
  17    0.00054909073311393
  18    1.8998289489338e-18
  19    0.00027039358402482
  20    -0.0010861718933197
  21    0.0017247060002228
  22    -0.00012225488492622
  23    0.00012225488546772
  24    -1.0119679250993e-16
  25    0.00039229804040434
  26    -0.00039229804216369
  27    -1.9184796619315e-16
  28    -0.00011158891194529
  29    0.00022335281644293
  30    8.8695832165317e-05
  31    0.00013229167196059
  32    4.0615706935322e-05
  33    1.0159021884237e-16
  34    -0.00041539285277722
  35    -0.00017362894687303
  36    2.1966948675734e-16
  37    -0.00011158891047898
  38    0.00022335280841929
  39    8.8695850720214e-05
  40    4.583798277945e-05
  41    -4.5837982582178e-05
  42    0.00012226398291464
  43    -0.0001208819536776
  44    0.00012088195316198
  45    -0.0004165013184936
  46    -0.00011158891047899
  47    0.0002233528084192
  48    8.869585072039e-05
  49    4.5837982778887e-05
  50    -4.5837982582121e-05
  51    -0.00012226398291464
  52    -0.0001208819536774
  53    0.00012088195316169
  54    0.00041650131849362
  55    -0.0023399422130167
  56    0.0095709044145996
  57    -0.014612164440778
  58    0.0011695861404273
  59    -0.0011695861355923
  60    -2.8567928948507e-17
  61    -0.0036203095395697
  62    0.0036203095246287
  63    4.9341687588677e-17
 Sym= A
 Ene=              10
 Spin= Alpha
 Occup=    0.00000
   1    0.00055880875011948
   2    -0.0013170390239665
   3    0.00013719207182306
   4    0.00015970986418128
   5    0.00060925485393077
   6    1.7264684779739e-16
   7    -0.00064208552483344
   8    -0.0018032934392778
   9    -3.7212875004662e-16
  10     -0.54173812984886
  11       1.6655261276448
  12     -0.65437172058977
  13    -0.00083297996581936
  14    0.00083297996204372
  15    -9.1086217238234e-17
  16    0.0023275696979973
  17    -0.0023275696873992
  18    -6.1549421917294e-17
  19    -0.0010529018670362
  20    0.0044120571194749
  21     -0.00725224841757
  22    0.00055855797445607
  23    -0.00055855797692371
  24    -1.8559630455029e-17
  25    -0.0016917747545484
  26    0.0016917747621207
  27    3.4837208409969e-16
  28    0.00055880876601657
  29    -0.0013170391027528
  30    0.00013719223310736
  31    -0.0006092548392188
  32    -0.00015970984890142
  33    -2.6991200416919e-17
  34    0.0018032933910663
  35      0.00064208547534
  36    2.3810815126763e-17
  37    0.00055880876068356
  38    -0.0013170390704654
  39    0.00013719215433293
  40    -0.00022477249647638
  41    0.00022477249550356
  42    -0.0005437401579233
  43    0.00058060396139172
  44    -0.00058060395887641
  45     0.001729144020297
  46    0.00055880876068331
  47    -0.0013170390704645
  48    0.00013719215433199
  49    -0.00022477249647594
  50    0.00022477249550374
  51    0.00054374015792334
  52    0.00058060396139129
  53    -0.00058060395887668
  54    -0.0017291440202971
  55    0.0065294237493993
  56    -0.035154069261036
  57     0.064964314348541
  58    -0.0053740270400326
  59    0.0053740270176404
  60    3.8034542830392e-17
  61     0.016942103330983
  62    -0.016942103259594
  63    -6.976141524166e-17
 Sym= A
 Ene=              11
 Spin= Alpha
 Occup=    0.00000
   1    -0.0011074823615038
   2    0.0029031624918576
   3    -0.0011438435778176
   4    -0.0002591680598288
   5    -0.0011064025903137
   6    -5.8631390030257e-17
   7    0.0010045827289017
   8    0.0032014753649705
   9    1.4174312561557e-16
  10      0.12118737449886
  11     -0.65417300065378
  12       1.3611981139842
  13    0.0012967568621944
  14    -0.001296756856321
  15    -1.088947688552e-16
  16    -0.0038106838668164
  17    0.0038106838494668
  18    1.0505687832074e-16
  19    0.0017912375189927
  20    -0.0076045086204524
  21     0.012661840326767
  22    -0.0010114470015994
  23    0.0010114470060632
  24    2.0245228844725e-16
  25    0.0029956575139251
  26    -0.002995657527321
  27    -1.9134074592481e-16
  28    -0.0011074823883793
  29    0.0029031626286266
  30    -0.0011438438627614
  31    0.0011064025638072
  32    0.00025916803227327
  33    -8.7240859925266e-17
  34    -0.0032014752798634
  35    -0.0010045826414646
  36    2.3312031182325e-17
  37    -0.0011074823796794
  38     0.002903162573625
  39    -0.0011438437254637
  40    0.00042361726827108
  41    -0.00042361726642919
  42    0.00096560425102633
  43    -0.0010984463259695
  44    0.0010984463211666
  45    -0.002974132150689
  46    -0.0011074823796788
  47    0.0029031625736232
  48    -0.0011438437254618
  49    0.00042361726827116
  50    -0.00042361726642941
  51    -0.00096560425102644
  52    -0.0010984463259695
  53    0.0010984463211669
  54    0.0029741321506892
  55    -0.009619546697155
  56     0.056627344553885
  57     -0.11603443885296
  58    0.0098561445217297
  59    -0.0098561444803868
  60    -3.1922199673248e-17
  61    -0.031479097931033
  62     0.031479097796592
  63    8.0064200132913e-17
 Sym= A
 Ene=              12
 Spin= Alpha
 Occup=    0.00000
   1    9.6584222490543e-05
   2    -0.00038824659802019
   3    0.00069164525719416
   4    -0.0001000326411258
   5    -0.00010122744165653
   6    -3.3480240515705e-15
   7    0.00028618112856751
   8    0.00029044676778434
   9    -1.0710397001978e-14
  10    0.0001848307278052
  11    -0.00078745562769246
  12    0.0012670576729151
  13       1.0980170234764
  14    -0.00010493569297124
  15    4.0470655357786e-16
  16     -0.27271275901095
  17    0.00030015315874308
  18    2.3426590048241e-16
  19    0.0002203121146284
  20    -0.00077851077100013
  21    0.0011466651613106
  22    -9.8100366512018e-05
  23    9.8618686809516e-05
  24    4.7936203813343e-17
  25    0.00028262765464563
  26    -0.0002839552955421
  27    -8.9571562818613e-17
  28    0.00023474539934872
  29    -0.00082448641849369
  30     0.001201631635074
  31    0.0001010702303396
  32    0.00010145658855742
  33    3.0356208214847e-15
  34    -0.00029013458743439
  35    -0.00029088865431946
  36    1.0280712655881e-14
  37    0.00016566481086632
  38    -0.00060636650848746
  39    0.00094663844762681
  40    4.4750145705519e-07
  41    4.3280295488704e-08
  42    0.00014276022868256
  43    -1.508697189401e-06
  44    2.4708899416109e-07
  45    -0.00040929148658008
  46    0.00016566481086589
  47    -0.00060636650848622
  48    0.00094663844762547
  49    4.4750145703055e-07
  50    4.3280295784332e-08
  51    -0.00014276022868266
  52    -1.5086971932705e-06
  53    2.4708899068914e-07
  54    0.00040929148658022
  55    -0.0020962013320587
  56    0.0070727389289775
  57    -0.0087874891042493
  58    0.00035065465096273
  59    -0.00039364121085704
  60    -1.2538506953264e-17
  61    -0.00088168074883643
  62    0.00099027079490674
  63    -2.5405564186872e-17
 Sym= A
 Ene=              13
 Spin= Alpha
 Occup=    0.00000
   1    -0.00023474540109157
   2    0.00082448642637541
   3    -0.0012016316516649
   4    0.00010145659065188
   5    0.00010107023240877
   6    3.5016508013607e-15
   7    -0.00029088866082621
   8    -0.00029013459387816
   9    1.0384132431034e-14
  10    -0.00018483072696701
  11    0.00078745562411549
  12    -0.0012670576671482
  13    -0.00010493569296991
  14       1.0980170234754
  15    5.9007421593011e-17
  16    0.00030015315874419
  17     -0.27271275900819
  18    1.0429664941752e-16
  19    -0.00022031211364732
  20    0.00077851076752061
  21    -0.0011466651561589
  22    9.8618685916428e-05
  23    -9.8100366511091e-05
  24    -2.8953515588156e-16
  25    -0.00028395529296216
  26    0.00028262765464843
  27    -4.0697993205823e-16
  28    -9.6584218567928e-05
  29    0.00038824658246215
  30    -0.00069164522941545
  31    -0.00010122743864648
  32    -0.0001000326380834
  33    -3.2179923568155e-15
  34    0.00029044675864482
  35    0.00028618111935229
  36    -1.0114392478199e-14
  37    -0.00016566481007949
  38    0.00060636650561758
  39    -0.0009466384431716
  40    4.328033230582e-08
  41    4.4750149377019e-07
  42    -0.00014276022801988
  43    2.4708889480732e-07
  44    -1.5086972831601e-06
  45    0.00040929148468255
  46    -0.00016566481007899
  47    0.00060636650561612
  48    -0.00094663844317003
  49    4.328033249664e-08
  50    4.4750149382507e-07
  51    0.00014276022801993
  52    2.4708889757182e-07
  53    -1.50869727939e-06
  54    -0.00040929148468263
  55    0.0020962013223179
  56    -0.0070727388962124
  57    0.0087874890639339
  58    -0.00039364120979309
  59    0.00035065464825097
  60    7.5816514550777e-18
  61    0.0009902707917087
  62    -0.00088168074251537
  63    3.4413173834666e-17
 Sym= A
 Ene=              14
 Spin= Alpha
 Occup=    0.00000
   1    1.0571241692821e-16
   2    -2.0968233793318e-16
   3    7.0803729352853e-17
   4    -1.2322133035787e-16
   5    6.6407082838897e-17
   6    4.9078181446388e-07
   7    -5.5922984701252e-16
   8    -4.2064908338039e-16
   9    -1.2616083359003e-06
  10    2.0665615710426e-16
  11    -8.0378619698282e-17
  12    -1.3523332212903e-16
  13    4.0048227274766e-16
  14    6.315535995327e-17
  15        1.097912087783
  16    2.7183873931024e-17
  17    -1.1943309679404e-16
  18     -0.27241260585085
  19    -1.7813764603976e-16
  20    1.9093373618701e-17
  21    8.1754906002029e-17
  22    -1.0993354969712e-16
  23    -2.3041389445495e-16
  24    5.1831984234722e-07
  25    1.7640652608287e-16
  26    -6.1549305028545e-16
  27    -1.3276396004901e-06
  28    -1.2394740222627e-16
  29    3.1748025577458e-16
  30    -3.341950393865e-16
  31    -4.0231250591529e-17
  32    -3.2131628780093e-16
  33    4.9078176854796e-07
  34    -2.8920168268298e-16
  35    1.1172067903826e-16
  36    -1.2616082581214e-06
  37    9.7694707447989e-05
  38    -0.00030846814479693